% Model:              test_geom_2_equal_d.mph
% Version:            COMSOL 5.5.0.292
% Date:               May 28 2020, 14:17
% Table:              Table 1 - out
% freq (Hz)              real(acpr.p_t) (Pa)      imag(acpr.p_t) (Pa)
1                        1.0167639135452007       0
2                        1.069980999927731        0
3                        1.1697670573406131       0
4                        1.3387256701504102       0
5                        1.6273505823005072       0
6                        2.1653752445790615       0
7                        3.4013876295010115       0
8                        8.575046839584083        0
9                        -15.519321956285202      0
10                       -4.112777123476438       0
11                       -2.417996856864762       0
12                       -1.7543062934419047      0
13                       -1.413796658060761       0
14                       -1.2182344441332715      0
15                       -1.1026829894770949      0
16                       -1.038946788654384       0
17                       -1.0142740919213884      0
18                       -1.024198033394649       0
19                       -1.0704009354251518      0
20                       -1.1614594573059502      0
21                       -1.3171610952588892      0
22                       -1.581128214547898       0
23                       -2.0610685603957513      0
24                       -3.100076516311777       0
25                       -6.649660945189785       0
26                       39.62592936099957        0
27                       5.051536829734995        0
28                       2.7663101384703417       0
29                       1.9616083929656685       0
30                       1.569252916368563        0
31                       1.3533068299466895       0
32                       1.2334594783986          0
33                       1.17715143065627         0
34                       1.1719894961701907       0
35                       1.2178393799718557       0
36                       1.3270372214204647       0
37                       1.53321260168175         0
38                       1.9229482328592165       0
39                       2.7696801102652744       0
40                       5.543486685008527        0
41                       -62.766042250320496      0
42                       -4.52116416659243        0
43                       -2.335885983856383       0
44                       -1.5894417373946452      0
45                       -1.2243853471939694      0
46                       -1.016811556111555       0
47                       -0.8909476803178136      0
48                       -0.8148066257256534      0
49                       -0.7735275349776098      0
50                       -0.7606582925910594      0
51                       -0.7752239032810139      0
52                       -0.8215998169752559      0
53                       -0.9122601062820206      0
54                       -1.0769044367259868      0
55                       -1.393869928908967       0
56                       -2.1401435323921545      0
57                       -5.433512673753624       0
58                       7.999926966210294        0
59                       2.2144156557917567       0
60                       1.2713266446454623       0
61                       0.8926500082518318       0
62                       0.6931944939255473       0
63                       0.5735425901623397       0
64                       0.4966787759437747       0
65                       0.44584698765408926      0
66                       0.4125515302095601       0
67                       0.39225879036948463      0
68                       0.3826380073612429       0
69                       0.38282273679924295      0
70                       0.3931937172812836       0
71                       0.4155660842155071       0
72                       0.45392825462842407      0
73                       0.516338327010684        0
74                       0.619977456993344        0
75                       0.8071312752360916       0
76                       1.214277369381952        0
77                       2.653012306946934        0
78                       -11.172231644809234      0
79                       -1.7742597372471958      0
80                       -0.9682780882933433      0
81                       -0.6737605065450838      0
82                       -0.5248015067820817      0
83                       -0.43768287252352506     0
84                       -0.3829635582833282      0
85                       -0.3477813201080149      0
86                       -0.3257965638673953      0
87                       -0.3137359068553129      0
88                       -0.31002287525854866     0
89                       -0.3142266421777043      0
90                       -0.3269262795566372      0
91                       -0.34990326830388235     0
92                       -0.38678946348973026     0
93                       -0.4446628889108312      0
94                       -0.5381577647113308      0
95                       -0.7018861908849562      0
96                       -1.0401748981995178      0
97                       -2.0746468653367454      0
98                       -885.336765017237        0
99                       2.1431846832102597       0
100                      1.1027988172398169       0
101                      0.7658134633882384       0
102                      0.6056180822483355       0
103                      0.5175532893882193       0
104                      0.46732251895703975      0
105                      0.4409702116956878       0
106                      0.4325539977917395       0
107                      0.4403291790080973       0
108                      0.4657816351775556       0
109                      0.5143794864520334       0
110                      0.5988591417545658       0
111                      0.7495487227738878       0
112                      1.0534187084801194       0
113                      1.8880401258458586       0
114                      10.966844235584714       0
115                      -2.8655403260759424      0
116                      -1.293626495593185       0
117                      -0.8598611080042579      0
118                      -0.6661480295126226      0
119                      -0.564783982369786       0
120                      -0.5114749438429839      0
121                      -0.490328975736368       0
122                      -0.4979661749760637      0
123                      -0.5423984271708361      0
124                      -0.6577801430853932      0
125                      -1.0119237221600217      0
126                      -8.348403790583385       0
127                      0.6455318983536318       0
128                      0.12935187999478323      0
129                      -0.07299199607083483     0
130                      -0.23981707004070027     0
131                      -0.4723255725038362      0
132                      -1.0024929422005646      0
133                      -4.632272210065997       0
134                      2.729814037950134        0
135                      1.2683035900206088       0
136                      0.943680620240292        0
137                      0.8477820366859503       0
138                      0.872543933848452        0
139                      1.0420155765792423       0
140                      1.598910569827084        0
141                      6.476366320823091        0
142                      -2.296676523505249       0
143                      -0.8938338185960986      0
144                      -0.536734531113472       0
145                      -0.3803799105530955      0
146                      -0.2966744450152578      0
147                      -0.2476458954390872      0
148                      -0.21845027053542587     0
149                      -0.20258864249611502     0
150                      -0.1975325908182474      0
151                      -0.20354952487823202     0
152                      -0.22445849951261207     0
153                      -0.2720560323265686      0
154                      -0.3866041370927302      0
155                      -0.8091704317107727      0
156                      3.5637177917090765       0
157                      0.5547478459892388       0
158                      0.3241135976127944       0
159                      0.26515640351229985      0
160                      0.2982421875363726       0
161                      0.8932309969326994       0
162                      -0.2552479867851462      0
163                      -0.07612881664684362     0
164                      -0.03513259814461689     0
165                      -0.018997700246267357    0
166                      -0.011160084519254683    0
167                      -0.006887873161132098    0
168                      -0.0043824026854590485   0
169                      -0.002837516038231583    0
170                      -0.001850435662187753    0
171                      -0.0012037173361115364   0
172                      -7.729482002363474E-4    0
173                      -4.836606895843036E-4    0
174                      -2.896578339808668E-4    0
175                      -1.6143824263814698E-4   0
176                      -7.969048893284514E-5    0
177                      -3.1434242880044E-5      0
178                      -7.494884784970022E-6    0
179                      -2.5261356445744877E-7   0
180                      9.302929005445661E-7     0
181                      3.974401949901077E-5     0
182                      -0.0011434529666297906   0
183                      -3.493918963085153E-4    0
184                      -3.911889616842159E-4    0
185                      -4.915890244639784E-4    0
186                      -6.324157101928419E-4    0
187                      -8.176190525524312E-4    0
188                      -0.0010590483392194003   0
189                      -0.0013763011462376111   0
190                      -0.0018000738551453813   0
191                      -0.0023791118069003987   0
192                      -0.00319369019452216     0
193                      -0.004383056101135007    0
194                      -0.0062061535715497804   0
195                      -0.009192502969000886    0
196                      -0.01458414786284371     0
197                      -0.026005911030535983    0
198                      -0.05956930841463641     0
199                      -0.45596522363785996     0
200                      0.15381305397144518      0
201                      0.09697252834548001      0
202                      0.0986871793221106       0
203                      0.1479310503667916       0
204                      1.1014010510440047       0
205                      -0.1475554392551692      0
206                      -0.0636497627593151      0
207                      -0.039423215083115484    0
208                      -0.028355377167171177    0
209                      -0.02222715367336301     0
210                      -0.018463144664433002    0
211                      -0.016010808624072285    0
212                      -0.014367518618613604    0
213                      -0.01326881858287185     0
214                      -0.012568121092473029    0
215                      -0.012184494473054523    0
216                      -0.012078847946653412    0
217                      -0.01224417484236666     0
218                      -0.012704992921635174    0
219                      -0.01352627033477906     0
220                      -0.014837978827996125    0
221                      -0.016894644061591614    0
222                      -0.020231663868858635    0
223                      -0.026156428070300615    0
224                      -0.03885698630123551     0
225                      -0.0828560367353735      0
226                      0.3768431677251227       0
227                      0.054482838031278624     0
228                      0.02855641850035863      0
229                      0.01896064467142289      0
230                      0.013925702667997811     0
231                      0.01076796224008701      0
232                      0.008527254201424979     0
233                      0.006757381507558421     0
234                      0.0051985686746824624    0
235                      0.003654038249725851     0
236                      0.001920349409612901     0
237                      -2.8392186606531096E-4   0
238                      -0.0034432052022495495   0
239                      -0.008543207643915189    0
240                      -0.017954221274869692    0
241                      -0.038820557643863975    0
242                      -0.10335386888689156     0
243                      -0.7450136052771916      0
244                      0.5139068355090547       0
245                      0.6279333373613297       0
246                      -0.6284465562695037      0
247                      -0.14072138598854436     0
248                      -0.06827023749935951     0
249                      -0.0415571118737697      0
250                      -0.028279954122879526    0
