% Model:              test_geom_2_equal_d_Z.mph
% Version:            COMSOL 5.5.0.292
% Date:               May 15 2020, 17:09
% Table:              Table 1 - branch 2
% freq (Hz)              real(acpr.p_t) (Pa)      imag(acpr.p_t) (Pa)
1                        0.14680432711668825      -0.26097099042107663
2                        0.09000373012125573      -0.14169150838344152
3                        0.08011356715049793      -0.09841008584631203
4                        0.07843973124386695      -0.07717092784676176
5                        0.07983518180139691      -0.06518854227052474
6                        0.08312242066629269      -0.05804904019008854
7                        0.08805318242405065      -0.053878673763018116
8                        0.09473201410234693      -0.0518010714372247
9                        0.10348989054027595      -0.05142097194346635
10                       0.11489232756738016      -0.052634921223680894
11                       0.12982739416751995      -0.05557972790561749
12                       0.14969357856384916      -0.060672261378791684
13                       0.17677143372827486      -0.06876422703281979
14                       0.2149949713815647       -0.0815309053950432
15                       0.2717084858346916       -0.1024775141810292
16                       0.36223257880940074      -0.13995380930399115
17                       0.524166691625008        -0.218684381269042
18                       0.8757793000266029       -0.446757449861632
19                       1.7909046445327974       -1.9338799663370037
20                       -2.7784361072785826      -1.1100832963920622
21                       -1.2630110951947515      0.005151565986044632
22                       -0.8390406748441372      0.07494216348699856
23                       -0.6647897564106633      0.08320332239977114
24                       -0.5799640031298171      0.08401907585792055
25                       -0.5393028256705423      0.08514127586082067
26                       -0.5263896819427205      0.08841168495228686
27                       -0.5352430363017777      0.09478688598606573
28                       -0.5652304449817965      0.10547164339808927
29                       -0.6200304084119516      0.12259228812818378
30                       -0.7089320250049819      0.1503265502406358
31                       -0.8514856696718369      0.1977656022372149
32                       -1.0907428361957199      0.2879421234227177
33                       -1.5361360029771796      0.4953002853497893
34                       -2.534799467806628       1.1912960390096001
35                       -3.9130952607978733      6.518364488316021
36                       4.996304836779573        2.209473107964979
37                       2.6466785512325957       0.259508311532597
38                       1.8305782063462153       0.00557902624974974
39                       1.4706855214021943       -0.06564475171137961
40                       1.294565671043558        -0.09869054096014993
41                       1.2175358934033507       -0.12375425017334882
42                       1.2100224745393784       -0.15198600459689718
43                       1.2665402096820184       -0.19204872938340362
44                       1.400002380449078        -0.25747469293974357
45                       1.64999197296424         -0.37933507237
46                       2.1149365989042783       -0.6513467688072447
47                       3.0377355719389576       -1.474316495018115
48                       3.8899166623745183       -5.444704918423671
49                       -4.50674160958322        -5.027572728392159
50                       -3.17287800079748        -1.0758553277204108
51                       -2.126739228839469       -0.3670982831679668
52                       -1.6157333496870936      -0.157450043567373
53                       -1.3380995918387444      -0.07042186229290476
54                       -1.1799321518191748      -0.02484253833631356
55                       -1.0943010185544573      0.0045869391080967286
56                       -1.0611627006464144      0.028408805398629677
57                       -1.0743380568769987      0.05295344376359962
58                       -1.138312402683238       0.08469790953400055
59                       -1.271415647922523       0.13482315619516352
60                       -1.5196387576979884      0.2310480120790521
61                       -2.0023762787583594      0.467723796144483
62                       -3.056841553435184       1.3467828192381934
63                       -2.6744055755917135      6.764476963154904
64                       3.5541242603314656       2.4748087432752977
65                       2.0896861763361105       0.6339935063342035
66                       1.4043199170018772       0.2674900275317489
67                       1.058507471328952        0.14361501727620993
68                       0.8597517130213049       0.08816258171807967
69                       0.7366391827746122       0.05877052107257268
70                       0.6580831403817413       0.04126252682305587
71                       0.6089798835197355       0.029816771081947958
72                       0.5816899540653129       0.02164690219979349
73                       0.5727134608614638       0.015207845267985494
74                       0.581455900509931        0.009453553346063993
75                       0.6101697102750092       0.003414948186274579
76                       0.6651122018831086       -0.004243085366782308
77                       0.7600655722141808       -0.01613706459255583
78                       0.9265712107349827       -0.03906156725008569
79                       1.2497211928154528       -0.09695252400099733
80                       2.048219809559431        -0.3289693731277886
81                       5.267443316520673        -3.703836560066903
82                       -3.5264077965836846      -1.4572594522559397
83                       -1.56074217186314        -0.2724307514148878
84                       -0.9860580366380243      -0.11277400001093736
85                       -0.7250266756976179      -0.06241243501981881
86                       -0.5802822021486969      -0.04012521419472626
87                       -0.49135856567708214     -0.0282719357708179
88                       -0.4338783548227501      -0.021187654200717308
89                       -0.396329779889576       -0.01658878235504216
90                       -0.3727815962004514      -0.013401684794331207
91                       -0.3601320665336856      -0.011057036926454144
92                       -0.3569695498945039      -0.009215074542878494
93                       -0.36313914271988        -0.007638451699045852
94                       -0.3797353802646914      -0.006115070795511147
95                       -0.4095325398091789      -0.004380647562052168
96                       -0.45818157965990425     -0.001979680173754372
97                       -0.537275913130768       0.002102355942776057
98                       -0.6731677214594461      0.01071595034228988
99                       -0.9390298504400365      0.03467548986398289
100                      -1.6347294397593375      0.1449304393641074
101                      -6.148796408641566       3.2269083425134526
102                      2.6394048958870444       0.5708805302326037
103                      1.1668861792738223       0.12058632914449412
104                      0.7555513989528773       0.054338384034636256
105                      0.5680558846870544       0.032145945697774105
106                      0.46429775071341317      0.021882084998576138
107                      0.4013837463835214       0.016223072302045213
108                      0.362032185722175        0.012728575129912663
109                      0.3381989416908392       0.0103797754190385
110                      0.3259610749809389       0.00867437595510745
111                      0.3236438089483047       0.007319642316354766
112                      0.3311707642896449       0.006098717803743844
113                      0.35009266846108505      0.004780810887731503
114                      0.3843470613705499       0.002998902256880008
115                      0.4425082123383328       -4.881778382015114E-5
116                      0.544448254091653        -0.006627940440468165
117                      0.7457334968100486       -0.025446502341077152
118                      1.274805453648311        -0.1146048264449794
119                      4.584401553653179        -2.663962400333574
120                      -1.90745163839631        -0.46117520209320084
121                      -0.8297471709595031      -0.10101801167346007
122                      -0.5201413922220542      -0.046054123985916545
123                      -0.37448864110391394     -0.027123293570673276
124                      -0.28867560394833847     -0.017971259425998976
125                      -0.229441012359392       -0.01246787947253138
126                      -0.18118322584271698     -0.008452690777772925
127                      -0.13204096722035796     -0.004897827072580378
128                      -0.06432692959000276     -0.0013983485563900109
129                      0.0714257927898179       -7.835546847884309E-4
130                      0.5392268662371894       -0.06641404872501172
131                      -1.5840196604461194      -3.8924144590008867
132                      -1.4952203844635414      -0.45796612843998713
133                      -1.7777240145234954      -0.3675209001203209
134                      -5.461041016408946       15.629789020479963
135                      0.7900619851316376       0.3749428422276753
136                      0.23295974707402775      0.15840567985657256
137                      0.035205177161225516     0.10356257871850762
138                      -0.08881073099674228     0.08404983599302839
139                      -0.20873706834965838     0.0806768767129503
140                      -0.3797485450932851      0.09335455335149909
141                      -0.7480243884895332      0.14791136072274128
142                      -2.6165977000787897      0.6920217531512353
143                      2.4977197736040484       0.08220631714099037
144                      0.9777822625293593       -0.029159906777116832
145                      0.6563314535753022       -0.023191754760159524
146                      0.5247601502416142       -0.01796473904376332
147                      0.46088594181020864      -0.014715496004158127
148                      0.43160079133672435      -0.012787866202418872
149                      0.42549424164300226      -0.011776633121125266
150                      0.43948420487150874      -0.011511238177603387
151                      0.4757196358169454       -0.012012293140815896
152                      0.5423431250713778       -0.013543577620456024
153                      0.6585511097911955       -0.016870732782920644
154                      0.8711479960790002       -0.02423885519274061
155                      1.3191713551427469       -0.04416129676773542
156                      2.641385830306756        -0.1351816767408203
157                      21.850503572808638       -7.425061194440261
158                      -4.600430772955469       -0.19623713620346897
159                      -2.786853458600944       -0.041078425086096874
160                      -2.8971470760771414      -0.01707238278915729
161                      -7.339186237352691       0.028821313368069347
162                      3.2461091063402083       0.02597824306135198
163                      0.9733569890974257       0.003615705491567866
164                      0.48534028507789034      0.0010971679010047294
165                      0.290303064140281        4.2686824447592204E-4
166                      0.1916984011535449       1.8802475268240223E-4
167                      0.13492117421909233      8.901652155746246E-5
168                      0.09933607524512761      4.4014826881525425E-5
169                      0.07563276067590095      2.229697245916308E-5
170                      0.05908494741837807      1.1397324760646004E-5
171                      0.04707861707069546      5.796479862741997E-6
172                      0.038067466014175315     2.8893575408311307E-6
173                      0.031082278096041388     1.3859322721175738E-6
174                      0.025479266715366326     6.237609127657816E-7
175                      0.020798408337720314     2.5334475246701474E-7
176                      0.016670877060966146     8.674658786867128E-8
177                      0.012736524538503213     2.1764572914520263E-8
178                      0.008520240155705678     2.7446479723766594E-9
179                      0.0031175182867271673    2.4877305051345757E-11
180                      -0.0060666574504181685   1.11609050320515E-10
181                      -0.03319177627840864     1.1786893082629683E-8
182                      0.3424081638855935       -4.992189154875746E-7
183                      0.05184623733265863      -1.9104854259954142E-7
184                      0.033723614888203635     -2.463041381694265E-7
185                      0.027031906097526665     -3.386449831006106E-7
186                      0.023560894018546604     -4.599917854716931E-7
187                      0.021499207332797192     -6.110901479860703E-7
188                      0.020218626406711206     -7.953145865780511E-7
189                      0.019447820798732873     -1.0180569379313233E-6
190                      0.019056443912917137     -1.2870204014471484E-6
191                      0.018982070162317836     -1.6129343862228608E-6
192                      0.019201898883880755     -2.0107250151186484E-6
193                      0.01972202192584533      -2.501371396482462E-6
194                      0.020575657876147214     -3.114906766470895E-6
195                      0.021828222769334032     -3.895444943849564E-6
196                      0.023590727057719807     -4.909994917780549E-6
197                      0.026047310989857866     -6.264833526519486E-6
198                      0.029511698102974417     -8.138203340929725E-6
199                      0.03455123440534927      -1.0852023024675855E-5
200                      0.04229282051192922      -1.5050218267773328E-5
201                      0.0553188299001696       -2.222907368188744E-5
202                      0.08110402484221235      -3.682533728181557E-5
203                      0.15392615980948288      -8.026970614846751E-5
204                      1.486677596983853        -0.0013649982950361859
205                      -0.1981545340056736      1.0643896215841432E-4
206                      -0.09463600667969883     5.890439004454251E-5
207                      -0.06330396256289189     4.3846920018103334E-5
208                      -0.04842666470566927     3.692012808673132E-5
209                      -0.039928193605332854    3.33202882840813E-5
210                      -0.034591379423168894    3.1479969030947343E-5
211                      -0.031078138314279385    3.075665770253411E-5
212                      -0.02874057034507221     3.086166432294038E-5
213                      -0.027236259174044517    3.167444587429113E-5
214                      -0.02637884911109638     3.3174022772826584E-5
215                      -0.02607359639740275     3.541609764940434E-5
216                      -0.026289538862659088    3.85347095164249E-5
217                      -0.027051381457648647    4.276513104723257E-5
218                      -0.02844679151528301     4.849645699873401E-5
219                      -0.03065331682688853     5.63797462039344E-5
220                      -0.034001893645732265    6.755876426838467E-5
221                      -0.03912625299109197     8.421122279265283E-5
222                      -0.04735453272082114     1.1101591236495464E-4
223                      -0.0619520953955441      1.6009850821423592E-4
224                      -0.09357411337207361     2.750600123822072E-4
225                      -0.20805363352535197     7.956314264455792E-4
226                      0.6880870657589641       0.0011185863652794412
227                      0.12404907927977722      -2.607847512184757E-4
228                      0.06661000690277263      -1.7730159890455167E-4
229                      0.044747740357538104     -1.347364164190429E-4
230                      0.03313051676373634      -1.0967105730161746E-4
231                      0.025784374146627726     -9.278474931037662E-5
232                      0.020535537691370054     -7.990307995922542E-5
233                      0.01635998369108732      -6.864718790911277E-5
234                      0.012651373440384762     -5.7180699603987485E-5
235                      0.008939267252228397     -4.35117538407386E-5
236                      0.004723757511620384     -2.477755399579522E-5
237                      -7.025455087713242E-4    3.976822154068237E-6
238                      -0.008576424841810506    5.2517446653714196E-5
239                      -0.021443189236313154    1.4257743706937032E-4
240                      -0.04548546617295796     3.3033177007761653E-4
241                      -0.0995381223074558      7.972663283818735E-4
242                      -0.26959521957924354     0.0024249602156571157
243                      -2.0081079191512736      0.0214038772861695
244                      1.4487028655323055       -0.018797361514724015
245                      2.3095409878744277       -0.062131203136824104
246                      -1.0739097850265398      -0.004050353680916438
247                      -0.31382490223183984     0.0015279976950426668
248                      -0.1614364686104552      0.0012036278759345717
249                      -0.10128149678010882     9.224950573250577E-4
250                      -0.07042047926930124     7.396242585312245E-4
